95
Lattice="10.40293084 0.0 0.0 0.0 10.40293084 0.0 0.0 0.0 10.40293084" Properties=species:S:1:pos:R:3:born_effective_charges:R:9:forces:R:3 energy=-909.7703615 stress="0.026193877688119618 -0.00033592857554696885 -0.001988705944547509 -0.00033592857554696885 0.03248423423131253 0.004303110481388445 -0.001988705944547509 0.004303110481388445 0.024622316926770627" free_energy=-909.7703615 pbc="T T T"
Zr       0.01020569       0.03197726       0.06817394       6.20192871      -0.29211875       0.73771480      -0.59230483       5.66143378      -0.58268954       0.25694493      -0.36924150       5.00333549      -1.33311140       0.90929954      -0.70864562
Zr       0.10666510       0.02296426       5.11387461       5.93082547      -0.34803950      -0.01829448       0.05099779       5.61929981      -0.91850022      -0.32140837      -0.36196716       5.61606665      -0.32767554      -1.24628439       0.37058595
Zr       0.10504453       5.14246228      10.39056228       5.47409629      -0.20281047       0.25600200      -0.58551443       5.72760287       0.14307316       0.20020478      -0.24796681       5.93726506      -0.24999858       0.18989939      -1.17894850
Zr      10.38696827       5.10665269       5.27889027       5.43944611       0.50875641       0.55890895       0.66321164       5.88837069       1.00285726       0.40432063       0.64310239       5.17407787      -0.54824254       1.00682063       2.03090613
Zr       5.22821822      10.29951073      10.34880824       5.72746537      -0.26247046       0.11762867      -0.35221344       5.84192960      -0.13263936       0.18244578      -0.11873403       4.98126027      -1.27269250      -0.34160321       1.11842077
Zr       5.30022075       0.14895072       5.27478434       5.53201290       0.19254135      -0.33843295       0.38181547       5.71731166       0.07311312      -0.10243074       0.03772743       5.35286689      -1.68962311      -1.15457416       1.40039762
Zr       5.17261445       5.19949105      10.38482287       6.20956301       0.54854953      -0.14444885       0.66140876       5.32326203      -1.49856897       0.17019148      -1.20750075       5.38690068       1.07342193      -1.02616940      -0.73971563
Zr       5.23234194       5.19378400       5.19328456       5.36043549       0.07494045      -0.10511948       0.37533265       5.65775489      -0.40616775      -0.01345001       0.14058266       5.85524219      -0.55694819      -0.33197020       0.13492359
Zr       0.09614638       2.65461375       2.71585237       5.39660036       0.23287093       0.80668799       0.43422419       5.74884931      -0.09606345       0.36183691      -0.16773183       5.86546050      -0.96163557       0.18176062      -0.72622826
Zr       0.12572420       2.69312613       7.79471374       6.05525816       0.00438671       0.29296868       0.12395836       5.48659049      -0.29283598      -0.12996148      -0.23783382       5.36965565      -1.76982788      -1.61873090       2.13249890
Zr      10.27633435       7.82812057       2.48960007       5.59634203      -0.00179908       0.25602109       0.07151420       5.61931206       0.06857636       0.25393113       0.04070061       5.15444516      -0.02538865       1.01431492       0.04794734
Zr      10.33665907       7.64732242       7.78204786       5.00666685       0.09685472       0.22677919      -0.14728124       5.59172468      -0.50053057       0.39054008      -0.42074696       5.75368483      -0.55845225      -0.12708759      -0.74031763
Zr       5.31953754       2.65105647       2.74080370       5.68919455      -0.00559107      -0.83110184       0.06594348       5.91289193       0.65768014      -0.87282349       0.22709000       5.49316111       0.10005692      -0.32777316      -0.55951245
Zr       5.18945024       2.56605017       7.86443470       5.65994721      -0.13875563      -0.56248381      -0.21853072       5.63728226       0.50579581      -0.62808301       0.25062392       5.50633788      -0.09463354      -1.36108213      -0.74263188
Zr       5.30266680       7.86526267       2.83993052       5.86969844      -0.77114131      -0.70280205      -0.92120232       5.11891259      -0.51282210      -0.69387737      -0.59429208       5.51094730       0.40247562       2.12904658      -1.49787598
Zr       5.15912872       7.64207455       7.83682491       5.06637817       0.08695495       0.21470623       0.28070231       6.30494072       0.39685488       0.32759045       0.35656931       5.46870843      -1.17591622       1.93955114      -0.69528202
Zr       2.66547265      10.38714595       2.43886311       5.77086584       0.52926929      -0.29638770       0.43865359       5.32349144      -0.58803821      -0.39353353      -0.64217954       5.61348674       1.80193055       0.06255633      -0.72265438
Zr       2.35365780       0.00736829       7.69832497       4.77491029      -0.52244273      -0.54468360      -0.47053038       5.83023118       0.12292439      -0.17343310      -0.18256618       5.98364360       3.42843946      -2.13184328      -0.27090403
Zr       2.42033663       5.20475129       2.63817151       5.03497444      -0.77133386       0.34723661      -0.45981753       5.63327655      -0.12647075       0.17723603      -0.15872452       5.69059069       1.77957928      -0.50191716      -0.15353361
Zr       2.66495104       5.14151947       7.66585898       5.80014040      -0.21657186      -0.22101525      -0.29925658       5.79326822       0.07176661      -0.31689363      -0.00380570       5.14180835      -0.85021462       1.64225833       0.12427242
Zr       7.96330062       0.03702153       2.61391291       5.27987366      -0.18007042       0.25802634      -0.30054910       5.90375447      -0.65212034       0.15783032       0.02290030       5.22648066      -1.21953297       0.12317919      -1.38559519
Zr       7.88265388       0.03875081       7.75013229       5.20469509       0.04430441       0.01551605      -0.03998663       5.51128964      -0.28495080       0.16257588       0.02044397       5.26789319       0.14520587      -0.72752219       0.50563617
Zr       7.87163145       5.28547252       2.51870154       5.05716573       0.39834008       0.02661111       0.48890389       5.98390463       0.20836647      -0.01176018       0.23709809       5.03956966      -1.08247763      -0.70100697      -1.56012632
Zr       7.69829647       5.06072157       7.91631422       6.08012065      -0.61408660       0.28973731      -0.43447276       5.30488815      -0.23459440       0.17184855      -0.24319425       5.19879515       1.45499349       0.36850303      -0.28272520
Zr       2.69339151       2.61152523      10.26547130       5.47431967      -0.04257330      -0.08984975       0.17580989       5.91047808      -0.02055024      -0.11601553      -0.14927631       5.37153314       0.11300718      -0.60960117       0.40699328
Zr       2.54990867       2.54562807       5.19101224       5.72159365       0.33343232       0.20953575       0.35114393       5.48976484      -0.11404530       0.33317741       0.12306445       5.45225708       2.12151581       0.06192058      -0.46214568
Zr       2.40028498       8.01162276      10.25434807       4.95852734       0.33725415      -0.59829711       0.46153420       5.30086987      -0.21478861      -0.05299505      -0.31192186       5.50334867       2.40783076      -1.21620194      -0.42054015
Zr       2.50058047       7.78925553       4.99441100       5.88173290       0.28563583      -0.79432752      -0.15441111       5.74533349       0.28711985      -0.48922104       0.44708561       5.71841117       1.24861200       0.19895786       0.38644430
Zr       7.85704727       2.61960987      10.40170246       5.63131572       0.04402198      -0.06464201       0.11449281       5.74670039       0.55674633       0.32796150       0.06853387       5.43160001       0.24338164      -0.57120543       1.06982871
Zr       7.96145608       2.67923843       5.17742175       6.11639652       0.35496937      -0.19257300      -0.01239468       5.67193778       0.54578935       0.21965836       0.47052232       4.91650719       0.39251049       1.17201450       1.78122618
Zr       7.66641127       7.89623126      10.38542104       5.76494016       0.44051568       0.14866639       0.73106853       5.81663804       0.08172256      -0.14946396      -0.13049082       5.28000428      -0.31252373       0.49553577       0.68690562
Zr       7.77836460       7.87895491       5.09966234       5.68226611      -0.34544780       0.71812583      -0.71421225       5.63275017       0.25881459      -0.00725548       0.10338760       5.70069193       1.72008833       0.05606991       1.69425525
O        1.34413055       3.88961413       9.07315800      -2.92741707       0.25557929      -0.07327727       0.35885038      -2.77517587      -0.10954763      -0.06224595      -0.26283636      -2.69423914       0.11304793       0.40949187       1.65355457
O        1.30335002       9.41045119       3.56262348      -3.03414844      -0.37778706       0.73665370      -0.43730556      -2.67301440       0.24947830       0.76444938       0.22316762      -3.02676593      -0.71282841      -1.70640098       1.53632525
O        1.19285061       9.02569411       9.06932265      -2.68176636      -0.09291461      -0.14578003      -0.00764632      -2.67938635       0.03073908      -0.33462444       0.12330003      -2.88342159      -2.26742740       1.80053227      -2.94846438
O        6.30771485       6.75776458       4.15596078      -2.88636015      -0.52336141      -0.58756181      -0.51612039      -3.10710045       0.59584747      -0.31721262       0.66411913      -2.59485411       0.24079848      -1.93637231       2.11873453
O        6.48087726       3.80653133       9.05994680      -2.71392032      -0.41093338      -0.18390098      -0.44081411      -2.78450882       0.16661008      -0.19026791       0.14459897      -2.64360226      -0.15941144      -0.91169427      -0.12813594
O        6.72701715       9.16917476       4.02552082      -2.81248436       0.23086772      -0.15903690       0.38468990      -2.89429846       0.38561444       0.04883551       0.36853467      -2.60431938      -2.09846038       2.41901283      -1.19497635
O        6.08724544       8.81945996       9.24012785      -2.76492977       0.31048597      -0.57583260       0.24188552      -3.03154839      -0.90061269      -0.56295419      -0.86790745      -2.88783030       1.94476311      -0.37466730       0.31145998
O        1.33199574       3.94688465       3.87730122      -2.64531391      -0.16188112       0.02070744      -0.29106730      -2.93179011       0.23567927       0.16302389       0.24926829      -2.94276889       1.07277074       0.82456726       1.12995655
O        1.55750215       1.39666379       9.01621163      -2.61095590       0.25073952      -0.11114535       0.15066973      -3.06172253      -0.71225612      -0.06138875      -0.75047130      -2.92129564      -0.51209381      -0.55155192      -1.18852356
O        1.20833547       6.64666481       3.59354370      -2.93276136       0.61474734      -0.47056116       0.52714662      -2.89673104      -0.00964942      -0.47517445      -0.15758258      -2.74615117      -0.74459129       0.07084638       0.49226971
O        1.44254644       6.49529072       8.83044420      -2.83392075       0.45586425       0.05213391       0.49123362      -2.92001257      -0.26671232      -0.02308722      -0.28160354      -2.67068840      -0.69307438       0.29764468       0.03532862
O        6.58724504       1.52593258       4.39787126      -3.19879439      -1.20400875      -0.20650971      -1.07015267      -2.90834608      -0.00818650      -0.27578531       0.18512916      -2.47296239      -1.49373988      -0.59583258      -2.22391628
O        6.72958220       1.08223364       9.41456024      -2.95966702      -0.77062720       0.22570297      -0.65444291      -2.89622500      -0.34717237       0.08903913      -0.42260642      -2.58655499       0.36088167       0.44890472      -0.22999222
O        6.50965374       6.68510354       1.53354535      -2.51292697       0.54373750       0.27521712       0.45396009      -2.90911490      -0.01272815       0.21609226       0.05419476      -2.86817868      -0.21749656      -1.09645846       0.27469042
O        6.65026246       6.23278254       9.57561852      -2.98700937      -0.83176946       0.44721738      -1.04437398      -3.28374557      -0.21289421       0.53736952      -0.29251348      -2.55670272       2.05006048       1.29362353      -2.31337108
O        1.55642513       1.14546380       1.00164547      -2.92774920      -0.38038026      -0.44149153      -0.37666704      -2.66652585       0.35688742      -0.21577360       0.60652021      -2.69862356      -0.24037923       0.59574319       1.55891381
O        1.38664639       1.35527261       6.38488567      -2.71160714      -0.15946615      -0.02493185      -0.18462917      -2.90947165       0.29223571      -0.00884648       0.34212517      -2.89351606      -2.45052477      -0.93334384       0.49929862
O        1.84684188       6.48038062       1.12617157      -2.04407578      -0.12191582      -0.22088445      -0.18707581      -3.33615822       1.18072244      -0.20503710       1.15125685      -3.22096713      -0.96084926      -0.94566367      -0.09174592
O        1.20509486       6.39214462       6.07461971      -3.07022398      -0.97289098      -0.12734125      -0.91248375      -3.14759619      -0.15054803      -0.11710639      -0.14740988      -2.54400299       2.43797146       1.45533362       1.64805838
O        6.60764019       1.48168757       1.69691474      -3.11187216       0.95868011       0.48679311       0.93185682      -3.05849200       0.05773636       0.52339535      -0.07871995      -2.79826572       1.64154978      -0.27312359      -0.46540854
O        6.33555039       1.29562626       6.78792454      -2.90918241       0.70187878      -0.03463236       0.62896136      -2.85906137      -0.70341343      -0.09511967      -0.69521587      -2.79099450       0.54002527      -1.69425175       0.26679780
O        6.43140248       9.20998120       1.39025330      -2.70274884       0.08075073      -0.21816725       0.11102950      -2.55078914       0.16057273      -0.13886352       0.14647459      -2.93112342       0.99201617       0.57349835       0.07431850
O        6.37749241       6.20271714       6.91257361      -2.97922916       1.03190531      -0.46477585       0.92904316      -2.98354119      -0.12234706      -0.57895700      -0.06742728      -2.71306047      -0.10898644       0.90618113      -0.75635981
O        1.19205759       3.84189526       1.34620458      -2.65468637      -0.08590852      -0.02026475      -0.14543727      -2.86832610       0.34647020       0.06671758       0.58496557      -3.10890482       0.35098990      -0.02432897      -0.03124482
O        1.16453175       3.88432684       6.64553641      -2.88344778      -0.42523424       0.17430787      -0.29250807      -2.71696920       0.53909837       0.20791278       0.54276815      -2.66790601       1.23410825       0.85517233      -2.25843974
O        1.09934563       9.08706953       1.02953916      -3.02405223       0.56233604       0.19071743       0.55928652      -2.93314729       0.33207685       0.16725657       0.28581373      -2.75461396       1.03586151      -1.72437167       2.69336901
O        1.36725886       8.98132509       6.16478847      -2.75313787       0.62645204       0.13943587       0.62196187      -3.03264973      -0.41541081       0.20934626      -0.46938880      -2.92647473       0.28473177       1.56069825       1.39981865
O        6.36320409       4.02377001       1.22910555      -2.70958067       0.40176590      -0.12269516       0.28035929      -2.90142420       0.43304280      -0.34725597       0.43913200      -2.92979603       0.49127971      -0.59931103      -0.45875123
O        6.46059924       3.74427478       6.34360361      -2.81610928       0.42672845       0.11832085       0.40443820      -2.74149917       0.13736540       0.17622849       0.08888539      -2.77639822      -0.37959240       0.95351022       0.05394760
O        3.87169040       8.75741573       1.35256545      -2.75582992       0.19767123      -0.35795927       0.26455021      -2.30224069      -0.10165850      -0.54725122      -0.03590135      -2.89550152      -1.17645670       0.41188779      -0.18818832
O        6.69341922       9.01310563       6.61630188      -2.67893186      -0.16977438      -0.01920491      -0.09631166      -2.88183138      -0.46513469       0.21109010      -0.49988417      -2.77953192      -0.15845661       0.02575982      -0.19203662
O        6.71829294       4.14543426       3.70867751      -2.76932301      -0.53140916       0.52315616      -0.54791245      -2.88845509       0.41692538       0.41361280       0.41956749      -2.82050272      -0.55914826      -0.95196540       1.68524315
O        3.67128157       3.99375610       6.21971937      -2.82731643      -0.49805390       0.28426898      -0.58038691      -3.03472416      -0.53604066       0.28263333      -0.56832446      -2.75019515       1.11152574      -0.05227923      -0.48873299
O        3.68700436       9.25031523       9.19267207      -2.88258973      -0.53528907       0.00092134      -0.43891245      -2.57426114       0.22551799      -0.17608675       0.43004830      -2.56715389      -0.40354195       0.42240325       0.19012828
O        3.94092481       9.16988924       6.69210460      -2.70404127       0.31157047       0.19838661       0.47678245      -2.97878998       0.28599415       0.14340217       0.18597498      -2.46483408       0.59493186      -0.41705286      -0.53539692
O        9.04223799       3.85309027       1.45419959      -2.68831768       0.22667027      -0.10967016       0.19440025      -2.83247343      -0.42249999       0.02505416      -0.36027195      -2.73304481      -0.25985654       1.52610188      -0.63236214
O        9.10938506       3.78110916       6.77937542      -3.10248215       0.40043226      -0.29991961       0.40446513      -2.59402409      -0.08878809      -0.12915362      -0.00346811      -2.64377118      -1.10450590       1.60458584      -2.32354845
O        8.96616292       9.22721698       1.18134143      -2.67464039      -0.18239534       0.17118446      -0.15249313      -2.71425249      -0.16725522       0.18044242      -0.30293784      -2.56141174       0.35387880       0.58006413       1.06007275
O        9.36788926       9.16140388       6.47102838      -2.69165532      -0.05974886       0.22847687       0.12549305      -2.96180426       0.65002505       0.20838619       0.55211017      -2.89075127      -0.82172576       0.37853306      -0.01405946
O        4.06067337       1.20961243       1.44214228      -2.90187686      -0.60289286       0.19512423      -0.46320678      -2.82436364      -0.00896487       0.23418748       0.07351144      -2.81837733       0.05612373       0.94160023      -0.73012372
O        3.77372620       1.27938364       6.48852913      -2.83051680       0.17373164       0.04436178       0.07655915      -2.58398361       0.19665930       0.01848425       0.19708857      -2.62135214       0.59304124       0.86961399       0.12570427
O        3.76564750       4.33503246       1.04010406      -3.36748597      -0.76476714       0.95695635      -0.62334407      -2.63971611      -0.10230354       0.75248139      -0.12119220      -2.89000152      -1.63981811      -0.86596456       0.89627056
O        3.91712780       6.52472894       6.58734376      -2.73507066      -0.34813017      -0.08802484      -0.45519266      -2.95729456      -0.02737479      -0.14501478      -0.15554075      -2.81354709      -0.99357284      -0.45868057      -1.75945399
O        9.30222055       1.43500712       1.53741232      -2.82312952      -0.49891886      -0.26882925      -0.53455403      -2.93518461      -0.28937298      -0.20092257      -0.33644950      -2.74374135      -0.16184128      -1.54040700      -0.41493161
O        9.04564485       1.32527108       6.78261801      -2.78382538      -0.62406104       0.20794809      -0.76490188      -2.94338944       0.44507002       0.25502207       0.43569037      -2.56099771       0.45130672       0.37858922      -1.39620722
O        9.31808148       6.65884602       1.11973184      -2.65072002       0.03780356      -0.22374424       0.03963896      -2.98345931      -0.70359448      -0.15689076      -0.70723760      -2.87161838       0.28323992      -1.02389743       0.08393421
O        9.10889092       6.54930128       6.27824013      -2.77345548       0.49891106      -0.28406919       0.45689313      -2.90698040      -0.17596977      -0.33798144      -0.11134866      -2.79287480      -0.52310481      -0.64838326       0.70802618
O        1.28236481       1.42882154       3.91028132      -2.92081611      -0.07284028      -0.54936887      -0.03766796      -2.90129301       0.31291266      -0.46886401       0.27007164      -2.93745561       0.41877141       0.04928196      -1.12651128
O        4.14836123       1.30544444       9.27055850      -2.84675358       0.53400979       0.43010929       0.39686081      -2.80724393       0.62140952       0.22238673       0.71577932      -2.66645706      -0.39465720       2.11179550      -0.80754328
O        4.02369178       4.04027790       3.70113341      -3.03611424       0.60383988      -0.11759282       0.54558202      -2.93414087      -0.36192981      -0.31701251      -0.43560801      -2.80123515       0.08906024       0.28788749       0.12780757
O        3.84177635       6.68763988       3.77152661      -3.16526187      -0.08053712       0.43119541      -0.13732291      -2.95402524      -0.07427733       0.36662778      -0.17808163      -2.39649770      -1.03924809      -3.00139032      -0.73816101
O        9.16392430       1.27729848       4.16505180      -3.01505852       0.79301928      -0.12816442       0.61962786      -3.07544364       0.00032337      -0.09755749      -0.22960550      -2.71184605      -0.42637424       0.23690162      -1.01250783
O        9.32398816       1.25833623       9.29944193      -2.99208244       0.68855532      -0.26760480       0.63398654      -3.04798366       0.39635508      -0.20315838       0.39446846      -2.86478625      -0.88844011       1.67855907      -0.38031956
O        8.75498082       6.62494620       3.66924822      -2.54897128      -0.49424917       0.02532760      -0.48608234      -3.13000463      -0.86366429       0.15918839      -0.71369857      -2.86798364       1.78382306       0.02505082       0.03791792
O        9.31590509       6.37297785       9.02953924      -2.68641817      -0.31188272       0.00411524      -0.21441993      -2.86576036       0.61213278       0.03558692       0.76221562      -2.76273260      -0.99130515       1.15767685      -1.01639690
O        3.96576628       1.39738055       3.86888712      -2.82748193      -0.04328732       0.15357837      -0.12119100      -2.52083203       0.11363806       0.18653716       0.08070360      -2.76851911      -0.17443581      -0.64264856       1.20418783
O        3.78312816       3.84666698       8.69345144      -2.90015580       0.75129761       0.03918748       0.83396246      -3.08778908       0.34883540      -0.00743701       0.39429807      -2.63407511       1.07837948      -0.37282259       1.92572062
O        4.06076512       8.98098730       3.91195400      -3.11183649       0.14670504       0.47629564       0.15706100      -2.85766236      -0.27342768       0.37988438      -0.28240793      -2.73190982      -1.23771206       3.47544242       1.73604058
O        3.96217311       6.48219520       9.16714432      -2.74617235       0.18588049      -0.13352952       0.04920061      -2.96041238       0.51433458      -0.09322670       0.51162209      -2.73146483       0.47412434       0.10238299       0.67155573
O        9.32876300       3.98876144       4.07599147      -2.84109473      -0.50286390      -0.18450711      -0.60227590      -2.90767841      -0.55431071      -0.09971734      -0.54661440      -2.81201098      -2.11366092      -2.14636220      -1.71977498
O        9.20493265       3.99747795       9.11019868      -3.06610948      -0.11703225      -0.26241055      -0.13598950      -2.64318107      -0.07322113      -0.14265579       0.09129020      -2.63480606      -0.60169281      -1.62952727       2.31686853
O        9.06944998       9.07415970       3.71580830      -2.66596678       0.31433825       0.09326485       0.42932833      -2.85078981       0.14101675       0.13984522       0.01468445      -2.65508397       1.99268595      -0.15052896       1.19498423
O        8.82760826       9.13372043       9.14246586      -2.63811609      -0.15808790       0.17590986       0.00508769      -2.91620557       0.67511595       0.12242301       0.71161813      -2.91498171       0.23310768      -1.01671101      -0.98957797
47
Lattice="7.36049819 0.0 0.0 0.0 7.36049819 0.0 0.0 0.0 10.73541107" Properties=species:S:1:pos:R:3:born_effective_charges:R:9:forces:R:3 energy=-457.78386428 stress="0.0650665833757746 0.0006473953848372121 -0.0017798418931965984 0.0006473953848372121 0.0696261809352199 -0.00714667683409502 -0.0017798418931965984 -0.00714667683409502 0.11703641235032558" free_energy=-457.78386428 pbc="T T T"
Zr       0.06440171       7.34765758      10.73349115       6.57275703       0.14523852       0.36662696       0.59022611       4.79726776       0.05720896       0.25956367       0.13389387       5.80336146      -0.26745679       1.03191041       0.03847322
Zr       0.00140622       7.26332416       5.34047774       5.43582942      -0.16338686       0.45669531      -0.44177420       4.87646177      -0.36571021       0.03751558      -0.42800210       5.72777555      -0.16688372       1.19436263       0.36384165
Zr       7.25571627       3.72971672       0.22757880       5.01399312      -0.16007122       0.18686961      -0.14477217       5.14256825      -0.04089656       0.15917860       0.01148560       5.64036775       0.42691306      -0.99725624      -0.50571075
Zr       0.04942832       3.69871555       5.24803147       6.32005987       0.08412420      -0.02334704       0.51011765       4.53542448       0.55806528      -0.14161345       0.43120227       5.66911894       1.06513525       0.60982204      -0.73869226
Zr       3.73627058       7.31594561       0.09179775       6.01142620       0.08208710      -0.48181966      -0.30093748       5.87561198       0.24247324      -0.25132678       0.26018766       4.99050300       1.09303765       0.53931941      -0.17126845
Zr       3.57589865       7.33089412       5.20704152       5.23231027      -0.23693562      -0.70818823      -0.07426103       5.49587765      -0.18880879      -0.43390935      -0.25757268       4.91765323       0.42377125      -0.78537319       0.31423485
Zr       3.72503883       3.85060150       0.10803828       5.14948002      -0.25934936      -0.18983873      -0.19812019       5.49542448       0.19976259      -0.17720066       0.49673867       5.64877760      -0.26985456      -0.24854212      -0.89991843
Zr       3.72742319       3.66387854       5.41710528       5.35614716       0.15699486       0.31538779      -0.12510877       5.56959928      -0.32796839       0.17350615      -0.37946266       5.65565750      -0.83567761       0.35423248       1.00529388
Zr       1.91463951       1.78722273       2.65083966       5.64014405      -0.35507744       0.01572581      -0.43056998       5.70594936      -0.55239153       0.27814056      -0.22814852       5.58028004       0.01132710       0.29075064      -0.63646563
Zr       1.98211754       1.93057248       8.33817628       5.12816485       0.34409217      -0.88425918       0.45552496       5.95170525      -0.65633763      -0.79797703      -0.70035706       4.22839972       0.77512865       1.44491472      -0.49112310
Zr       1.87634961       5.47418092       2.70477995       5.14994158       0.23566159      -0.07616974       0.19087056       5.81419118       0.40316602      -0.19099758       0.18057207       5.54454623       0.73261006      -0.92369693      -0.14174999
Zr       1.75855919       5.46006408       8.04132756       5.30935381      -0.42872453       0.28277454      -0.49576995       5.40121838      -0.26586906       0.45059348      -0.51745420       5.55514098       1.02923343       0.12974252       0.09900652
Zr       5.48351028       1.82673403       2.79314279       5.10926529       0.40393175       0.46599598       0.52975803       5.44772393       0.14060276       0.24862090       0.27581177       5.24303660      -0.11700021      -0.78228623      -0.32321449
Zr       5.46660108       1.97119750       8.23036334       5.34265047      -0.38702192       0.62966352      -0.40482729       5.69891833       0.57174302       0.71920362       0.51555963       5.71298899      -0.80381324      -1.39353252       0.20229363
Zr       5.66306264       5.58347063       2.74508594       5.29701565      -0.15615761      -0.35965042      -0.16146376       5.48193720       0.21603752      -0.21265027       0.21555289       5.81722714      -1.27270913       0.33870557       0.34275235
Zr       5.76786060       5.60470471       8.07712737       5.88242665       0.30374664       0.44809528       0.33035113       4.71476513      -0.00473300       0.36324643      -0.09778911       5.68596496      -2.08499198       1.38335533       0.09226653
O        1.89345555       7.26595988       6.34181720      -3.68642702      -0.08753994       0.20388083      -0.06678152      -1.92084475       0.16345677       0.47206687       0.36879886      -2.92299273      -0.12310237       0.43279046       1.07061071
O        1.91035216       3.67747640       1.45646839      -2.85177453      -0.02799784       0.00664144      -0.11531995      -2.98276521       0.20206280       0.09843513       0.09306672      -2.65546906      -0.32430596      -1.15748824      -1.48268490